<?xml version="1.0" encoding="UTF-8"?>

<!-- generated on 2022-05-10 13:22:11 by Eclipse SUMO GUI Version 1.12.0
<configuration xmlns:xsi="http://www.w3.org/2001/XMLSchema-instance" xsi:noNamespaceSchemaLocation="http://sumo.dlr.de/xsd/sumoConfiguration.xsd">

    <input>
        <net-file value="new-network.net.xml"/>
        <route-files value="new-network.route.xml"/>
    </input>

    <output>
        <tripinfo-output value="tripinfo.xml"/>
    </output>

    <traci_server>
        <remote-port value="58015"/>
    </traci_server>

</configuration>
-->

<tripinfos xmlns:xsi="http://www.w3.org/2001/XMLSchema-instance" xsi:noNamespaceSchemaLocation="http://sumo.dlr.de/xsd/tripinfo_file.xsd">
    <tripinfo id="vehicleflow_5.0" depart="19.00" departLane="E1_0" departPos="5.10" departSpeed="0.00" departDelay="19.00" arrival="145.00" arrivalLane="-E21_0" arrivalPos="194.11" arrivalSpeed="23.18" duration="126.00" routeLength="1059.53" waitingTime="20.00" waitingCount="2" stopTime="0.00" timeLoss="86.68" rerouteNo="0" devices="tripinfo_vehicleflow_5.0" vType="passenger_car_1" speedFactor="1.99" vaporized=""/>
    <tripinfo id="vehicleflow_3.0" depart="12.00" departLane="E1_0" departPos="5.10" departSpeed="0.00" departDelay="12.00" arrival="216.00" arrivalLane="-E19_0" arrivalPos="149.98" arrivalSpeed="26.49" duration="204.00" routeLength="1392.59" waitingTime="61.00" waitingCount="6" stopTime="0.00" timeLoss="150.61" rerouteNo="0" devices="tripinfo_vehicleflow_3.0" vType="two_wheeled_vehicle_3" speedFactor="1.94" vaporized=""/>
    <tripinfo id="vehicleflow_4.0" depart="15.00" departLane="E1_0" departPos="5.10" departSpeed="0.00" departDelay="15.00" arrival="220.00" arrivalLane="E20_0" arrivalPos="165.83" arrivalSpeed="24.96" duration="205.00" routeLength="1400.81" waitingTime="57.00" waitingCount="5" stopTime="0.00" timeLoss="148.49" rerouteNo="0" devices="tripinfo_vehicleflow_4.0" vType="passenger_car_0" speedFactor="1.86" vaporized=""/>
    <tripinfo id="vehicleflow_135.0" depart="3.00" departLane="-E20_0" departPos="6.60" departSpeed="0.00" departDelay="3.00" arrival="251.00" arrivalLane="-E3_0" arrivalPos="162.29" arrivalSpeed="24.86" duration="248.00" routeLength="1266.08" waitingTime="125.00" waitingCount="7" stopTime="0.00" timeLoss="198.89" rerouteNo="0" devices="tripinfo_vehicleflow_135.0" vType="passenger_car_5" speedFactor="1.93" vaporized=""/>
    <tripinfo id="vehicleflow_136.0" depart="8.00" departLane="-E20_0" departPos="7.20" departSpeed="0.00" departDelay="8.00" arrival="261.00" arrivalLane="-E1_0" arrivalPos="153.43" arrivalSpeed="20.17" duration="253.00" routeLength="1266.27" waitingTime="102.00" waitingCount="6" stopTime="0.00" timeLoss="205.90" rerouteNo="0" devices="tripinfo_vehicleflow_136.0" vType="truck_0" speedFactor="1.99" vaporized=""/>
    <tripinfo id="vehicleflow_0.0" depart="0.00" departLane="E1_0" departPos="1.70" departSpeed="0.00" departDelay="0.00" arrival="272.00" arrivalLane="E18_0" arrivalPos="188.20" arrivalSpeed="15.52" duration="272.00" routeLength="1395.66" waitingTime="109.00" waitingCount="3" stopTime="0.00" timeLoss="201.16" rerouteNo="0" devices="tripinfo_vehicleflow_0.0" vType="two_wheeled_vehicle_0" speedFactor="1.94" vaporized=""/>
    <tripinfo id="vehicleflow_6.0" depart="23.00" departLane="E1_0" departPos="5.10" departSpeed="0.00" departDelay="23.00" arrival="285.00" arrivalLane="E18_0" arrivalPos="188.20" arrivalSpeed="25.16" duration="262.00" routeLength="1394.02" waitingTime="124.00" waitingCount="7" stopTime="0.00" timeLoss="208.91" rerouteNo="0" devices="tripinfo_vehicleflow_6.0" vType="passenger_car_2" speedFactor="1.93" vaporized=""/>
    <tripinfo id="vehicleflow_134.0" depart="0.00" departLane="-E20_0" departPos="5.10" departSpeed="0.00" departDelay="0.00" arrival="285.00" arrivalLane="-E7_0" arrivalPos="162.29" arrivalSpeed="20.54" duration="285.00" routeLength="1280.41" waitingTime="153.00" waitingCount="9" stopTime="0.00" timeLoss="237.03" rerouteNo="0" devices="tripinfo_vehicleflow_134.0" vType="passenger_car_4" speedFactor="1.99" vaporized=""/>
    <tripinfo id="vehicleflow_9.0" depart="36.00" departLane="E1_0" departPos="6.60" departSpeed="0.00" departDelay="36.00" arrival="314.00" arrivalLane="-E19_0" arrivalPos="149.98" arrivalSpeed="25.67" duration="278.00" routeLength="1711.51" waitingTime="99.00" waitingCount="7" stopTime="0.00" timeLoss="213.55" rerouteNo="0" devices="tripinfo_vehicleflow_9.0" vType="passenger_car_5" speedFactor="1.97" vaporized=""/>
    <tripinfo id="vehicleflow_137.0" depart="16.00" departLane="-E20_0" departPos="16.60" departSpeed="0.00" departDelay="16.00" arrival="349.00" arrivalLane="E2_0" arrivalPos="165.25" arrivalSpeed="19.05" duration="333.00" routeLength="1273.86" waitingTime="151.00" waitingCount="6" stopTime="0.00" timeLoss="283.82" rerouteNo="0" devices="tripinfo_vehicleflow_137.0" vType="truck_1" speedFactor="1.93" vaporized=""/>
    <tripinfo id="vehicleflow_12.0" depart="58.00" departLane="E1_0" departPos="18.85" departSpeed="0.00" departDelay="58.00" arrival="352.00" arrivalLane="E18_0" arrivalPos="188.20" arrivalSpeed="18.36" duration="294.00" routeLength="1372.23" waitingTime="96.00" waitingCount="5" stopTime="0.00" timeLoss="240.69" rerouteNo="0" devices="tripinfo_vehicleflow_12.0" vType="truck_2" speedFactor="1.91" vaporized=""/>
    <tripinfo id="vehicleflow_2.0" depart="7.00" departLane="E1_0" departPos="2.30" departSpeed="0.00" departDelay="7.00" arrival="353.00" arrivalLane="E20_0" arrivalPos="165.83" arrivalSpeed="21.94" duration="346.00" routeLength="1620.63" waitingTime="159.00" waitingCount="7" stopTime="0.00" timeLoss="282.18" rerouteNo="0" devices="tripinfo_vehicleflow_2.0" vType="two_wheeled_vehicle_2" speedFactor="1.89" vaporized=""/>
    <tripinfo id="vehicleflow_8.0" depart="32.00" departLane="E1_0" departPos="5.10" departSpeed="0.00" departDelay="32.00" arrival="360.00" arrivalLane="E20_0" arrivalPos="165.83" arrivalSpeed="22.35" duration="328.00" routeLength="1623.21" waitingTime="155.00" waitingCount="12" stopTime="0.00" timeLoss="267.39" rerouteNo="0" devices="tripinfo_vehicleflow_8.0" vType="passenger_car_4" speedFactor="1.97" vaporized=""/>
    <tripinfo id="vehicleflow_1.0" depart="3.00" departLane="E1_0" departPos="2.20" departSpeed="0.00" departDelay="3.00" arrival="362.00" arrivalLane="-E19_0" arrivalPos="149.98" arrivalSpeed="13.48" duration="359.00" routeLength="1606.97" waitingTime="165.00" waitingCount="6" stopTime="0.00" timeLoss="294.40" rerouteNo="0" devices="tripinfo_vehicleflow_1.0" vType="two_wheeled_vehicle_1" speedFactor="1.83" vaporized=""/>
    <tripinfo id="vehicleflow_7.0" depart="26.00" departLane="E1_0" departPos="4.80" departSpeed="0.00" departDelay="26.00" arrival="364.00" arrivalLane="-E19_0" arrivalPos="149.98" arrivalSpeed="15.14" duration="338.00" routeLength="1609.75" waitingTime="165.00" waitingCount="10" stopTime="0.00" timeLoss="275.08" rerouteNo="0" devices="tripinfo_vehicleflow_7.0" vType="passenger_car_3" speedFactor="1.88" vaporized=""/>
    <tripinfo id="vehicleflow_13.0" depart="67.00" departLane="E1_0" departPos="12.10" departSpeed="0.00" departDelay="67.00" arrival="368.00" arrivalLane="-E19_0" arrivalPos="149.98" arrivalSpeed="19.39" duration="301.00" routeLength="1590.79" waitingTime="88.00" waitingCount="5" stopTime="0.00" timeLoss="240.74" rerouteNo="0" devices="tripinfo_vehicleflow_13.0" vType="bus_0" speedFactor="2.00" vaporized=""/>
    <tripinfo id="vehicleflow_18.0" depart="93.00" departLane="E1_0" departPos="1.70" departSpeed="0.00" departDelay="93.00" arrival="375.00" arrivalLane="E18_0" arrivalPos="188.20" arrivalSpeed="19.58" duration="282.00" routeLength="1298.48" waitingTime="116.00" waitingCount="8" stopTime="0.00" timeLoss="216.29" rerouteNo="0" devices="tripinfo_vehicleflow_18.0" vType="two_wheeled_vehicle_0" speedFactor="1.93" vaporized=""/>
    <tripinfo id="vehicleflow_15.0" depart="85.00" departLane="E1_0" departPos="14.10" departSpeed="0.00" departDelay="85.00" arrival="400.00" arrivalLane="-E19_0" arrivalPos="149.98" arrivalSpeed="20.55" duration="315.00" routeLength="1382.89" waitingTime="104.00" waitingCount="7" stopTime="0.00" timeLoss="261.57" rerouteNo="0" devices="tripinfo_vehicleflow_15.0" vType="bus_2" speedFactor="1.94" vaporized=""/>
    <tripinfo id="vehicleflow_10.0" depart="39.00" departLane="E1_0" departPos="7.20" departSpeed="0.00" departDelay="39.00" arrival="407.00" arrivalLane="E20_0" arrivalPos="165.83" arrivalSpeed="15.36" duration="368.00" routeLength="1719.13" waitingTime="136.00" waitingCount="8" stopTime="0.00" timeLoss="303.80" rerouteNo="0" devices="tripinfo_vehicleflow_10.0" vType="truck_0" speedFactor="1.99" vaporized=""/>
    <tripinfo id="vehicleflow_146.0" depart="69.00" departLane="-E20_0" departPos="2.30" departSpeed="0.00" departDelay="69.00" arrival="411.00" arrivalLane="-E7_0" arrivalPos="162.29" arrivalSpeed="18.87" duration="342.00" routeLength="1289.41" waitingTime="188.00" waitingCount="12" stopTime="0.00" timeLoss="287.51" rerouteNo="0" devices="tripinfo_vehicleflow_146.0" vType="two_wheeled_vehicle_2" speedFactor="1.76" vaporized=""/>
    <tripinfo id="vehicleflow_147.0" depart="73.00" departLane="-E20_0" departPos="5.10" departSpeed="0.00" departDelay="73.00" arrival="421.00" arrivalLane="-E1_0" arrivalPos="153.43" arrivalSpeed="22.50" duration="348.00" routeLength="1269.00" waitingTime="178.00" waitingCount="10" stopTime="0.00" timeLoss="300.67" rerouteNo="0" devices="tripinfo_vehicleflow_147.0" vType="two_wheeled_vehicle_3" speedFactor="1.98" vaporized=""/>
    <tripinfo id="vehicleflow_11.0" depart="47.00" departLane="E1_0" departPos="16.60" departSpeed="0.00" departDelay="47.00" arrival="432.00" arrivalLane="-E21_0" arrivalPos="194.11" arrivalSpeed="16.55" duration="385.00" routeLength="1716.47" waitingTime="127.00" waitingCount="7" stopTime="0.00" timeLoss="319.42" rerouteNo="0" devices="tripinfo_vehicleflow_11.0" vType="truck_1" speedFactor="1.94" vaporized=""/>
    <tripinfo id="vehicleflow_16.0" depart="88.00" departLane="E1_0" departPos="5.10" departSpeed="0.00" departDelay="88.00" arrival="432.00" arrivalLane="E20_0" arrivalPos="165.83" arrivalSpeed="23.91" duration="344.00" routeLength="1400.11" waitingTime="144.00" waitingCount="14" stopTime="0.00" timeLoss="289.10" rerouteNo="0" devices="tripinfo_vehicleflow_16.0" vType="electric_vehicle_0" speedFactor="1.92" vaporized=""/>
    <tripinfo id="vehicleflow_17.0" depart="90.00" departLane="E1_0" departPos="1.20" departSpeed="0.00" departDelay="90.00" arrival="436.00" arrivalLane="-E21_0" arrivalPos="194.11" arrivalSpeed="18.82" duration="346.00" routeLength="1405.19" waitingTime="134.00" waitingCount="13" stopTime="0.00" timeLoss="274.48" rerouteNo="0" devices="tripinfo_vehicleflow_17.0" vType="electric_vehicle_1" speedFactor="1.95" vaporized=""/>
    <tripinfo id="vehicleflow_142.0" depart="55.00" departLane="-E20_0" departPos="5.10" departSpeed="0.00" departDelay="55.00" arrival="443.00" arrivalLane="-E7_0" arrivalPos="162.29" arrivalSpeed="22.86" duration="388.00" routeLength="1188.64" waitingTime="239.00" waitingCount="7" stopTime="0.00" timeLoss="344.49" rerouteNo="0" devices="tripinfo_vehicleflow_142.0" vType="electric_vehicle_0" speedFactor="1.99" vaporized=""/>
    <tripinfo id="vehicleflow_14.0" depart="77.00" departLane="E1_0" departPos="18.00" departSpeed="0.00" departDelay="77.00" arrival="454.00" arrivalLane="E20_0" arrivalPos="165.83" arrivalSpeed="12.37" duration="377.00" routeLength="1598.65" waitingTime="143.00" waitingCount="10" stopTime="0.00" timeLoss="316.72" rerouteNo="0" devices="tripinfo_vehicleflow_14.0" vType="bus_1" speedFactor="2.00" vaporized=""/>
    <tripinfo id="vehicleflow_24.0" depart="129.00" departLane="E1_0" departPos="5.10" departSpeed="0.00" departDelay="129.00" arrival="458.00" arrivalLane="E18_0" arrivalPos="188.20" arrivalSpeed="26.20" duration="329.00" routeLength="1290.57" waitingTime="161.00" waitingCount="11" stopTime="0.00" timeLoss="278.36" rerouteNo="0" devices="tripinfo_vehicleflow_24.0" vType="passenger_car_2" speedFactor="1.90" vaporized=""/>
    <tripinfo id="vehicleflow_149.0" depart="81.00" departLane="-E20_0" departPos="5.10" departSpeed="0.00" departDelay="81.00" arrival="466.00" arrivalLane="-E3_0" arrivalPos="162.29" arrivalSpeed="23.22" duration="385.00" routeLength="952.85" waitingTime="257.00" waitingCount="12" stopTime="0.00" timeLoss="350.03" rerouteNo="0" devices="tripinfo_vehicleflow_149.0" vType="passenger_car_1" speedFactor="1.97" vaporized=""/>
    <tripinfo id="vehicleflow_150.0" depart="84.00" departLane="-E20_0" departPos="5.10" departSpeed="0.00" departDelay="84.00" arrival="469.00" arrivalLane="-E3_0" arrivalPos="162.29" arrivalSpeed="20.74" duration="385.00" routeLength="1264.12" waitingTime="224.00" waitingCount="9" stopTime="0.00" timeLoss="336.47" rerouteNo="0" devices="tripinfo_vehicleflow_150.0" vType="passenger_car_2" speedFactor="1.97" vaporized=""/>
    <tripinfo id="vehicleflow_27.0" depart="140.00" departLane="E1_0" departPos="6.60" departSpeed="0.00" departDelay="140.00" arrival="484.00" arrivalLane="-E19_0" arrivalPos="149.98" arrivalSpeed="22.08" duration="344.00" routeLength="1294.98" waitingTime="160.00" waitingCount="13" stopTime="0.00" timeLoss="294.74" rerouteNo="0" devices="tripinfo_vehicleflow_27.0" vType="passenger_car_5" speedFactor="1.93" vaporized=""/>
    <tripinfo id="vehicleflow_21.0" depart="111.00" departLane="E1_0" departPos="5.10" departSpeed="0.00" departDelay="111.00" arrival="496.00" arrivalLane="-E19_0" arrivalPos="149.98" arrivalSpeed="26.04" duration="385.00" routeLength="1614.07" waitingTime="143.00" waitingCount="9" stopTime="0.00" timeLoss="321.62" rerouteNo="0" devices="tripinfo_vehicleflow_21.0" vType="two_wheeled_vehicle_3" speedFactor="1.90" vaporized=""/>
    <tripinfo id="vehicleflow_22.0" depart="119.00" departLane="E1_0" departPos="5.10" departSpeed="0.00" departDelay="119.00" arrival="505.00" arrivalLane="E20_0" arrivalPos="165.83" arrivalSpeed="22.27" duration="386.00" routeLength="1622.29" waitingTime="133.00" waitingCount="9" stopTime="0.00" timeLoss="324.03" rerouteNo="0" devices="tripinfo_vehicleflow_22.0" vType="passenger_car_0" speedFactor="1.96" vaporized=""/>
    <tripinfo id="vehicleflow_23.0" depart="124.00" departLane="E1_0" departPos="5.10" departSpeed="0.00" departDelay="124.00" arrival="506.00" arrivalLane="-E21_0" arrivalPos="194.11" arrivalSpeed="26.55" duration="382.00" routeLength="1629.03" waitingTime="139.00" waitingCount="13" stopTime="0.00" timeLoss="321.07" rerouteNo="0" devices="tripinfo_vehicleflow_23.0" vType="passenger_car_1" speedFactor="2.00" vaporized=""/>
    <tripinfo id="vehicleflow_141.0" depart="51.00" departLane="-E20_0" departPos="14.10" departSpeed="0.00" departDelay="51.00" arrival="520.00" arrivalLane="-E7_0" arrivalPos="162.29" arrivalSpeed="21.61" duration="469.00" routeLength="1278.34" waitingTime="270.00" waitingCount="14" stopTime="0.00" timeLoss="420.65" rerouteNo="0" devices="tripinfo_vehicleflow_141.0" vType="bus_2" speedFactor="1.94" vaporized=""/>
    <tripinfo id="vehicleflow_138.0" depart="24.00" departLane="-E20_0" departPos="18.85" departSpeed="0.00" departDelay="24.00" arrival="522.00" arrivalLane="-E3_0" arrivalPos="162.29" arrivalSpeed="14.56" duration="498.00" routeLength="1606.32" waitingTime="244.00" waitingCount="10" stopTime="0.00" timeLoss="438.13" rerouteNo="0" devices="tripinfo_vehicleflow_138.0" vType="truck_2" speedFactor="1.99" vaporized=""/>
    <tripinfo id="vehicleflow_143.0" depart="58.00" departLane="-E20_0" departPos="1.20" departSpeed="0.00" departDelay="58.00" arrival="524.00" arrivalLane="-E3_0" arrivalPos="162.29" arrivalSpeed="16.89" duration="466.00" routeLength="1520.30" waitingTime="249.00" waitingCount="13" stopTime="0.00" timeLoss="389.11" rerouteNo="0" devices="tripinfo_vehicleflow_143.0" vType="electric_vehicle_1" speedFactor="1.97" vaporized=""/>
    <tripinfo id="vehicleflow_20.0" depart="102.00" departLane="E1_0" departPos="2.30" departSpeed="0.00" departDelay="102.00" arrival="537.00" arrivalLane="E20_0" arrivalPos="165.83" arrivalSpeed="23.28" duration="435.00" routeLength="1527.07" waitingTime="182.00" waitingCount="16" stopTime="0.00" timeLoss="377.91" rerouteNo="0" devices="tripinfo_vehicleflow_20.0" vType="two_wheeled_vehicle_2" speedFactor="1.97" vaporized=""/>
    <tripinfo id="vehicleflow_144.0" depart="61.00" departLane="-E20_0" departPos="1.70" departSpeed="0.00" departDelay="61.00" arrival="537.00" arrivalLane="-E1_0" arrivalPos="153.43" arrivalSpeed="13.85" duration="476.00" routeLength="1515.00" waitingTime="241.00" waitingCount="9" stopTime="0.00" timeLoss="398.88" rerouteNo="0" devices="tripinfo_vehicleflow_144.0" vType="two_wheeled_vehicle_0" speedFactor="1.99" vaporized=""/>
    <tripinfo id="vehicleflow_19.0" depart="97.00" departLane="E1_0" departPos="2.20" departSpeed="0.00" departDelay="97.00" arrival="539.00" arrivalLane="-E19_0" arrivalPos="149.98" arrivalSpeed="13.83" duration="442.00" routeLength="1513.41" waitingTime="197.00" waitingCount="13" stopTime="0.00" timeLoss="386.43" rerouteNo="0" devices="tripinfo_vehicleflow_19.0" vType="two_wheeled_vehicle_1" speedFactor="1.99" vaporized=""/>
    <tripinfo id="vehicleflow_25.0" depart="133.00" departLane="E1_0" departPos="4.80" departSpeed="0.00" departDelay="133.00" arrival="542.00" arrivalLane="-E19_0" arrivalPos="149.98" arrivalSpeed="21.04" duration="409.00" routeLength="1502.68" waitingTime="202.00" waitingCount="13" stopTime="0.00" timeLoss="349.44" rerouteNo="0" devices="tripinfo_vehicleflow_25.0" vType="passenger_car_3" speedFactor="1.88" vaporized=""/>
    <tripinfo id="vehicleflow_26.0" depart="136.00" departLane="E1_0" departPos="5.10" departSpeed="0.00" departDelay="136.00" arrival="545.00" arrivalLane="E20_0" arrivalPos="165.83" arrivalSpeed="22.99" duration="409.00" routeLength="1516.14" waitingTime="191.00" waitingCount="16" stopTime="0.00" timeLoss="349.96" rerouteNo="0" devices="tripinfo_vehicleflow_26.0" vType="passenger_car_4" speedFactor="1.93" vaporized=""/>
    <tripinfo id="vehicleflow_154.0" depart="97.00" departLane="-E20_0" departPos="7.20" departSpeed="0.00" departDelay="97.00" arrival="564.00" arrivalLane="-E7_0" arrivalPos="162.29" arrivalSpeed="16.80" duration="467.00" routeLength="1274.85" waitingTime="267.00" waitingCount="13" stopTime="0.00" timeLoss="418.32" rerouteNo="0" devices="tripinfo_vehicleflow_154.0" vType="truck_0" speedFactor="1.97" vaporized=""/>
    <tripinfo id="vehicleflow_151.0" depart="87.00" departLane="-E20_0" departPos="4.80" departSpeed="0.00" departDelay="87.00" arrival="572.00" arrivalLane="-E7_0" arrivalPos="162.29" arrivalSpeed="25.93" duration="485.00" routeLength="1598.18" waitingTime="303.00" waitingCount="14" stopTime="0.00" timeLoss="423.47" rerouteNo="0" devices="tripinfo_vehicleflow_151.0" vType="passenger_car_3" speedFactor="1.96" vaporized=""/>
    <tripinfo id="vehicleflow_28.0" depart="144.00" departLane="E1_0" departPos="7.20" departSpeed="0.00" departDelay="144.00" arrival="586.00" arrivalLane="E20_0" arrivalPos="165.83" arrivalSpeed="14.89" duration="442.00" routeLength="1302.60" waitingTime="224.00" waitingCount="14" stopTime="0.00" timeLoss="394.46" rerouteNo="0" devices="tripinfo_vehicleflow_28.0" vType="truck_0" speedFactor="2.00" vaporized=""/>
    <tripinfo id="vehicleflow_29.0" depart="153.00" departLane="E1_0" departPos="16.60" departSpeed="0.00" departDelay="153.00" arrival="608.00" arrivalLane="-E21_0" arrivalPos="194.11" arrivalSpeed="16.70" duration="455.00" routeLength="1294.38" waitingTime="258.00" waitingCount="9" stopTime="0.00" timeLoss="405.87" rerouteNo="0" devices="tripinfo_vehicleflow_29.0" vType="truck_1" speedFactor="1.95" vaporized=""/>
    <tripinfo id="vehicleflow_139.0" depart="33.00" departLane="-E20_0" departPos="12.10" departSpeed="0.00" departDelay="33.00" arrival="611.00" arrivalLane="-E1_0" arrivalPos="153.43" arrivalSpeed="12.49" duration="578.00" routeLength="1608.27" waitingTime="321.00" waitingCount="10" stopTime="0.00" timeLoss="518.25" rerouteNo="0" devices="tripinfo_vehicleflow_139.0" vType="bus_0" speedFactor="2.00" vaporized=""/>
    <tripinfo id="vehicleflow_152.0" depart="91.00" departLane="-E20_0" departPos="5.10" departSpeed="0.00" departDelay="91.00" arrival="614.00" arrivalLane="-E1_0" arrivalPos="153.43" arrivalSpeed="15.06" duration="523.00" routeLength="1580.27" waitingTime="304.00" waitingCount="21" stopTime="0.00" timeLoss="463.18" rerouteNo="0" devices="tripinfo_vehicleflow_152.0" vType="passenger_car_4" speedFactor="1.99" vaporized=""/>
    <tripinfo id="vehicleflow_155.0" depart="106.00" departLane="-E20_0" departPos="16.60" departSpeed="0.00" departDelay="106.00" arrival="614.00" arrivalLane="-E3_0" arrivalPos="162.29" arrivalSpeed="19.36" duration="508.00" routeLength="1252.62" waitingTime="297.00" waitingCount="17" stopTime="0.00" timeLoss="461.21" rerouteNo="0" devices="tripinfo_vehicleflow_155.0" vType="truck_1" speedFactor="1.99" vaporized=""/>
    <tripinfo id="vehicleflow_156.0" depart="170.00" departLane="-E20_0" departPos="18.85" departSpeed="0.00" departDelay="170.00" arrival="640.00" arrivalLane="-E1_0" arrivalPos="153.43" arrivalSpeed="12.89" duration="470.00" routeLength="1251.16" waitingTime="244.00" waitingCount="12" stopTime="0.00" timeLoss="423.65" rerouteNo="0" devices="tripinfo_vehicleflow_156.0" vType="truck_2" speedFactor="1.99" vaporized=""/>
    <tripinfo id="vehicleflow_36.0" depart="225.00" departLane="E1_0" departPos="1.70" departSpeed="0.00" departDelay="225.00" arrival="654.00" arrivalLane="E18_0" arrivalPos="188.20" arrivalSpeed="17.30" duration="429.00" routeLength="1389.41" waitingTime="225.00" waitingCount="12" stopTime="0.00" timeLoss="358.35" rerouteNo="0" devices="tripinfo_vehicleflow_36.0" vType="two_wheeled_vehicle_0" speedFactor="1.91" vaporized=""/>
    <tripinfo id="vehicleflow_30.0" depart="164.00" departLane="E1_0" departPos="18.85" departSpeed="0.00" departDelay="164.00" arrival="724.00" arrivalLane="E18_0" arrivalPos="188.20" arrivalSpeed="14.99" duration="560.00" routeLength="1618.14" waitingTime="296.00" waitingCount="10" stopTime="0.00" timeLoss="499.47" rerouteNo="0" devices="tripinfo_vehicleflow_30.0" vType="truck_2" speedFactor="1.98" vaporized=""/>
    <tripinfo id="vehicleflow_35.0" depart="223.00" departLane="E1_0" departPos="1.20" departSpeed="0.00" departDelay="223.00" arrival="741.00" arrivalLane="-E21_0" arrivalPos="194.11" arrivalSpeed="19.66" duration="518.00" routeLength="1303.06" waitingTime="305.00" waitingCount="18" stopTime="0.00" timeLoss="451.24" rerouteNo="0" devices="tripinfo_vehicleflow_35.0" vType="electric_vehicle_1" speedFactor="1.88" vaporized=""/>
    <tripinfo id="vehicleflow_33.0" depart="217.00" departLane="E1_0" departPos="14.10" departSpeed="0.00" departDelay="217.00" arrival="760.00" arrivalLane="-E19_0" arrivalPos="149.98" arrivalSpeed="16.69" duration="543.00" routeLength="1623.22" waitingTime="313.00" waitingCount="12" stopTime="0.00" timeLoss="482.11" rerouteNo="0" devices="tripinfo_vehicleflow_33.0" vType="bus_2" speedFactor="1.99" vaporized=""/>
    <tripinfo id="vehicleflow_34.0" depart="221.00" departLane="E1_0" departPos="5.10" departSpeed="0.00" departDelay="221.00" arrival="762.00" arrivalLane="E20_0" arrivalPos="165.83" arrivalSpeed="24.32" duration="541.00" routeLength="1640.44" waitingTime="306.00" waitingCount="13" stopTime="0.00" timeLoss="477.42" rerouteNo="0" devices="tripinfo_vehicleflow_34.0" vType="electric_vehicle_0" speedFactor="1.94" vaporized=""/>
    <tripinfo id="vehicleflow_148.0" depart="76.00" departLane="-E20_0" departPos="5.10" departSpeed="0.00" departDelay="76.00" arrival="765.00" arrivalLane="E2_0" arrivalPos="165.25" arrivalSpeed="6.98" duration="689.00" routeLength="1285.99" waitingTime="437.00" waitingCount="28" stopTime="0.00" timeLoss="638.79" rerouteNo="0" devices="tripinfo_vehicleflow_148.0" vType="passenger_car_0" speedFactor="1.89" vaporized=""/>
    <tripinfo id="vehicleflow_39.0" depart="236.00" departLane="E1_0" departPos="5.10" departSpeed="0.00" departDelay="236.00" arrival="767.00" arrivalLane="-E19_0" arrivalPos="149.98" arrivalSpeed="25.82" duration="531.00" routeLength="1705.00" waitingTime="281.00" waitingCount="17" stopTime="0.00" timeLoss="464.35" rerouteNo="0" devices="tripinfo_vehicleflow_39.0" vType="two_wheeled_vehicle_3" speedFactor="1.94" vaporized=""/>
    <tripinfo id="vehicleflow_145.0" depart="64.00" departLane="-E20_0" departPos="2.20" departSpeed="0.00" departDelay="64.00" arrival="770.00" arrivalLane="E2_0" arrivalPos="165.25" arrivalSpeed="7.09" duration="706.00" routeLength="1531.49" waitingTime="388.00" waitingCount="29" stopTime="0.00" timeLoss="647.55" rerouteNo="0" devices="tripinfo_vehicleflow_145.0" vType="two_wheeled_vehicle_1" speedFactor="1.95" vaporized=""/>
    <tripinfo id="vehicleflow_40.0" depart="240.00" departLane="E1_0" departPos="5.10" departSpeed="0.00" departDelay="240.00" arrival="774.00" arrivalLane="E20_0" arrivalPos="165.83" arrivalSpeed="25.10" duration="534.00" routeLength="1713.22" waitingTime="270.00" waitingCount="17" stopTime="0.00" timeLoss="467.33" rerouteNo="0" devices="tripinfo_vehicleflow_40.0" vType="passenger_car_0" speedFactor="1.96" vaporized=""/>
    <tripinfo id="vehicleflow_41.0" depart="244.00" departLane="E1_0" departPos="5.10" departSpeed="0.00" departDelay="244.00" arrival="788.00" arrivalLane="-E21_0" arrivalPos="194.11" arrivalSpeed="22.37" duration="544.00" routeLength="1719.96" waitingTime="263.00" waitingCount="15" stopTime="0.00" timeLoss="478.42" rerouteNo="0" devices="tripinfo_vehicleflow_41.0" vType="passenger_car_1" speedFactor="1.98" vaporized=""/>
    <tripinfo id="vehicleflow_158.0" depart="187.00" departLane="-E20_0" departPos="18.00" departSpeed="0.00" departDelay="187.00" arrival="789.00" arrivalLane="-E7_0" arrivalPos="162.29" arrivalSpeed="14.01" duration="602.00" routeLength="1264.00" waitingTime="378.00" waitingCount="14" stopTime="0.00" timeLoss="554.76" rerouteNo="0" devices="tripinfo_vehicleflow_158.0" vType="bus_1" speedFactor="2.00" vaporized=""/>
    <tripinfo id="vehicleflow_162.0" depart="261.00" departLane="-E20_0" departPos="1.70" departSpeed="0.00" departDelay="261.00" arrival="803.00" arrivalLane="-E7_0" arrivalPos="162.29" arrivalSpeed="19.39" duration="542.00" routeLength="1184.97" waitingTime="329.00" waitingCount="16" stopTime="0.00" timeLoss="481.43" rerouteNo="0" devices="tripinfo_vehicleflow_162.0" vType="two_wheeled_vehicle_0" speedFactor="1.90" vaporized=""/>
    <tripinfo id="vehicleflow_42.0" depart="248.00" departLane="E1_0" departPos="5.10" departSpeed="0.00" departDelay="248.00" arrival="805.00" arrivalLane="E18_0" arrivalPos="188.20" arrivalSpeed="24.60" duration="557.00" routeLength="1385.89" waitingTime="321.00" waitingCount="19" stopTime="0.00" timeLoss="504.83" rerouteNo="0" devices="tripinfo_vehicleflow_42.0" vType="passenger_car_2" speedFactor="1.98" vaporized=""/>
    <tripinfo id="vehicleflow_31.0" depart="172.00" departLane="E1_0" departPos="12.10" departSpeed="0.00" departDelay="172.00" arrival="810.00" arrivalLane="-E19_0" arrivalPos="149.98" arrivalSpeed="15.14" duration="638.00" routeLength="1836.70" waitingTime="341.00" waitingCount="16" stopTime="0.00" timeLoss="569.13" rerouteNo="0" devices="tripinfo_vehicleflow_31.0" vType="bus_0" speedFactor="2.00" vaporized=""/>
    <tripinfo id="vehicleflow_32.0" depart="182.00" departLane="E1_0" departPos="18.00" departSpeed="0.00" departDelay="182.00" arrival="812.00" arrivalLane="E20_0" arrivalPos="165.83" arrivalSpeed="15.22" duration="630.00" routeLength="1844.56" waitingTime="356.00" waitingCount="13" stopTime="0.00" timeLoss="561.44" rerouteNo="0" devices="tripinfo_vehicleflow_32.0" vType="bus_1" speedFactor="2.00" vaporized=""/>
    <tripinfo id="vehicleflow_37.0" depart="229.00" departLane="E1_0" departPos="2.20" departSpeed="0.00" departDelay="229.00" arrival="814.00" arrivalLane="-E19_0" arrivalPos="149.98" arrivalSpeed="16.47" duration="585.00" routeLength="1604.34" waitingTime="336.00" waitingCount="15" stopTime="0.00" timeLoss="521.58" rerouteNo="0" devices="tripinfo_vehicleflow_37.0" vType="two_wheeled_vehicle_1" speedFactor="1.91" vaporized=""/>
    <tripinfo id="vehicleflow_38.0" depart="233.00" departLane="E1_0" departPos="2.30" departSpeed="0.00" departDelay="233.00" arrival="814.00" arrivalLane="E20_0" arrivalPos="165.83" arrivalSpeed="20.54" duration="581.00" routeLength="1618.00" waitingTime="324.00" waitingCount="19" stopTime="0.00" timeLoss="520.28" rerouteNo="0" devices="tripinfo_vehicleflow_38.0" vType="two_wheeled_vehicle_2" speedFactor="1.97" vaporized=""/>
    <tripinfo id="vehicleflow_43.0" depart="251.00" departLane="E1_0" departPos="4.80" departSpeed="0.00" departDelay="251.00" arrival="818.00" arrivalLane="-E19_0" arrivalPos="149.98" arrivalSpeed="22.41" duration="567.00" routeLength="1598.00" waitingTime="315.00" waitingCount="16" stopTime="0.00" timeLoss="506.54" rerouteNo="0" devices="tripinfo_vehicleflow_43.0" vType="passenger_car_3" speedFactor="2.00" vaporized=""/>
    <tripinfo id="vehicleflow_45.0" depart="304.00" departLane="E1_0" departPos="6.60" departSpeed="0.00" departDelay="304.00" arrival="849.00" arrivalLane="-E19_0" arrivalPos="149.98" arrivalSpeed="20.15" duration="545.00" routeLength="1390.30" waitingTime="318.00" waitingCount="17" stopTime="0.00" timeLoss="492.47" rerouteNo="0" devices="tripinfo_vehicleflow_45.0" vType="passenger_car_5" speedFactor="1.99" vaporized=""/>